                         Program Version 5.0.4 -  RELEASE  -
|  1> ! DEF2-TZVP
|  2> %output Print [ P_Overlap ] 1 end
|  3> * xyz 2 5
|  4> 67      -0.481889388     -1.733341381     -3.682293394
|  5> 17       1.462607525     -1.387897367     -1.824387550
|  6> *
|  7>
|  8>                          ****END OF INPUT****

CARTESIAN COORDINATES (ANGSTROEM)
---------------------------------
  Ho    -0.481889   -1.733341   -3.682293
  Cl     1.462608   -1.387897   -1.824388

 Total Charge           Charge          ....    2
 Multiplicity           Mult            ....    5
 Number of Electrons    NEL             ....   54
 Basis Dimension        Dim             ....  130

ORBITAL ENERGIES
----------------
                 SPIN UP ORBITALS
  NO   OCC          E(Eh)            E(eV)
   0   1.0000    -105.157061     -2861.4691
   1   1.0000     -18.142695      -493.6878
   2   1.0000     -12.913817      -351.4028
   3   1.0000     -12.913128      -351.3841
   4   1.0000     -12.913114      -351.3837
   5   1.0000     -10.880466      -296.0725
   6   1.0000      -8.345575      -227.0947
   7   1.0000      -8.345574      -227.0946
   8   1.0000      -8.345326      -227.0879
   9   1.0000      -7.313651      -199.0146
  10   1.0000      -7.311981      -198.9691
  11   1.0000      -7.311942      -198.9681
  12   1.0000      -7.311030      -198.9433
  13   1.0000      -7.311025      -198.9431
  14   1.0000      -3.071065       -83.5679
  15   1.0000      -1.960155       -53.3385
  16   1.0000      -1.960145       -53.3383
  17   1.0000      -1.952725       -53.1364
  18   1.0000      -1.516877       -41.2763
  19   1.0000      -1.516234       -41.2588
  20   1.0000      -1.516223       -41.2585
  21   1.0000      -1.516163       -41.2569
  22   1.0000      -1.480472       -40.2857
  23   1.0000      -1.479568       -40.2611
  24   1.0000      -1.479543       -40.2604
  25   1.0000      -1.363280       -37.0967
  26   1.0000      -0.803268       -21.8580
  27   1.0000      -0.766562       -20.8592
  28   1.0000      -0.766561       -20.8592
  29   0.0000      -0.450203       -12.2507
  30   0.0000      -0.419514       -11.4156
  31   0.0000      -0.419509       -11.4154
  32   0.0000      -0.407886       -11.0991
  33   0.0000      -0.407873       -11.0988

                 SPIN DOWN ORBITALS
  NO   OCC          E(Eh)            E(eV)
   0   1.0000    -105.158356     -2861.5043
   1   1.0000     -17.807512      -484.5670
   2   1.0000     -12.548340      -341.4577
   3   1.0000     -12.548335      -341.4576
   4   1.0000     -12.547112      -341.4243
   5   1.0000     -10.881647      -296.1047
   6   1.0000      -8.348419      -227.1720
   7   1.0000      -8.347279      -227.1410
   8   1.0000      -8.347278      -227.1410
   9   1.0000      -6.845007      -186.2621
  10   1.0000      -6.844968      -186.2610
  11   1.0000      -6.842372      -186.1904
  12   1.0000      -6.842265      -186.1875
  13   1.0000      -6.840084      -186.1281
  14   1.0000      -2.977769       -81.0292
  15   1.0000      -1.888071       -51.3770
  16   1.0000      -1.888069       -51.3770
  17   1.0000      -1.876661       -51.0666
  18   1.0000      -1.373036       -37.3622
  19   1.0000      -1.335535       -36.3418
  20   1.0000      -1.333416       -36.2841
  21   1.0000      -1.333367       -36.2828
  22   1.0000      -0.810198       -22.0466
  23   1.0000      -0.772775       -21.0283
  24   1.0000      -0.772769       -21.0281
  25   0.0000      -0.444226       -12.0880
  26   0.0000      -0.400331       -10.8936
  27   0.0000      -0.400327       -10.8934
  28   0.0000      -0.387595       -10.5470
  29   0.0000      -0.387584       -10.5467

MULLIKEN ATOMIC CHARGES AND SPIN POPULATIONS
--------------------------------------------
   0 Ho:    2.226093    4.081902
   1 Cl:   -0.226093   -0.081902
Sum of atomic charges         :    2.0000000

LOEWDIN ATOMIC CHARGES AND SPIN POPULATIONS
-------------------------------------------
   0 Ho:    2.037201    4.072168
   1 Cl:   -0.037201   -0.072168

  Mayer bond orders larger than 0.100000
B(  0-Ho,  1-Cl) :   1.2782

FINAL SINGLE POINT ENERGY     -1404.480858121645

DIPOLE MOMENT
-------------
                                X             Y             Z
Electronic contribution:    -28.61933      -5.08427     -27.34484
Nuclear contribution   :     26.06059       4.62972      24.90008
                        -----------------------------------------
Total Dipole Moment    :     -2.55874      -0.45455      -2.44477
                        -----------------------------------------
Magnitude (a.u.)       :      3.56800
Magnitude (Debye)      :      9.06914

Rotational constants in cm-1:     0.000000     0.078575     0.078575
Rotational constants in MHz :     0.000000  2355.632331  2355.632331

                             ****ORCA TERMINATED NORMALLY****
TOTAL RUN TIME: 0 days 1 hours 10 minutes 8 seconds 969 msec
