                         Program Version 5.0.4 -  RELEASE  -
|  1> # input to generate an atomic fitting density for Ho
|  2> # this file is used internally by ORCA
|  3> #
|  4> # atomic ground state (S=4): 1s2 2s2 2p6 3s2 3p6 4s2 3d10 4p6 5s2 4d10 5p6 6s2 4f11
|  5> #
|  6> ! RHF AllowRHF def2-SVP def2/J  NoMulliken NoLoewdin NoMayer NoPrintMOs
|  7>
|  8> %output print[p_atomdensfit] 2 end
|  9>
| 10> %scf
| 11>   guess hcore
| 12>   maxiter 1000
| 13>   maxdisk 500000
| 14>   SCFMode Conventional
| 15>   hftyp rohf
| 16>   rohf_case sahf
| 17>   rohf_numop   3
| 18>   rohf_norb[1] 1,7
| 19>   rohf_nel[1]  2,11
| 20> end
| 21>
| 22> %basis
| 23>   NewECP 67
| 24>     N_core 28
| 25>     lmax h
| 26>     s 1
| 27>       1      28.3972570000    755.7031360000  2
| 28>     p 1
| 29>       1      17.4386330000    253.5519980000  2
| 30>     d 1
| 31>       1      12.4342120000     89.6356770000  2
| 32>     f 1
| 33>       1      25.3870100000    -55.4820360000  2
| 34>     g 1
| 35>       1      25.1885010000    -30.9911250000  2
| 36>     h 1
| 37>       1       1.0000000000      0.0000000000  2
| 38>   end
| 39>   NewGTO 67
| 40>     s 5
| 41>      1   86373.9550000000      0.0034641822
| 42>      2   13014.2000000000      0.0261146046
| 43>      3    2974.2417000000      0.1243996728
| 44>      4     840.7710000000      0.3714669273
| 45>      5     258.1223000000      0.5959725845
| 46>     s 1
| 47>      1      49.7648000000      1.0000000000
| 48>     s 1
| 49>      1      35.5463000000      1.0000000000
| 50>     s 1
| 51>      1      18.1290000000      1.0000000000
| 52>     s 1
| 53>      1       4.4456000000      1.0000000000
| 54>     s 1
| 55>      1       2.2170000000      1.0000000000
| 56>     s 1
| 57>      1       0.8329000000      1.0000000000
| 58>     s 1
| 59>      1       0.3544000000      1.0000000000
| 60>     s 1
| 61>      1       0.0597000000      1.0000000000
| 62>     s 1
| 63>      1       0.0244000000      1.0000000000
| 64>     p 6
| 65>      1    1332.9863082000     -0.0031009699
| 66>      2     314.4068793100     -0.0210512867
| 67>      3      97.9117194350     -0.0628507444
| 68>      4      27.9099616030     -0.3002118380
| 69>      5      16.5450973110      1.0608710803
| 70>      6       3.9331568107     -1.2610096744
| 71>     p 3
| 72>      1      11.7341126790     -0.2679606608
| 73>      2       5.7259586736     -0.4750307971
| 74>      3       2.1474251528     -0.3680662209
| 75>     p 1
| 76>      1       1.9836134634      1.0000000000
| 77>     p 1
| 78>      1       0.8459926388      1.0000000000
| 79>     p 1
| 80>      1       0.3590466282      1.0000000000
| 81>     p 1
| 82>      1       0.1278058205      1.0000000000
| 83>     p 1
| 84>      1       0.0386239785      1.0000000000
| 85>     d 6
| 86>      1     454.4404000000      0.0013880511
| 87>      2     137.4123000000      0.0114093894
| 88>      3      52.6936000000      0.0467844919
| 89>      4      22.6037000000      0.1001586426
| 90>      5       8.7808000000      0.3809294574
| 91>      6       4.3752000000      0.5957437311
| 92>     d 1
| 93>      1       2.1022000000      1.0000000000
| 94>     d 1
| 95>      1       0.9073000000      1.0000000000
| 96>     d 1
| 97>      1       0.3172000000      1.0000000000
| 98>     d 1
| 99>      1       0.0975000000      1.0000000000
|100>     f 5
|101>      1     136.4678000000      0.0074743782
|102>      2      49.5692000000      0.0692401818
|103>      3      22.2471000000      0.2232423851
|104>      4      10.1359000000      0.4035649755
|105>      5       4.6186000000      0.5057438703
|106>     f 1
|107>      1       2.0375000000      1.0000000000
|108>     f 1
|109>      1       0.8343000000      1.0000000000
|110>     f 1
|111>      1       0.2979000000      1.0000000000
|112>   end
|113>   NewAuxGTO 67
|114>     S 1
|115>      1 1310.72 1.0
|116>     S 1
|117>      1  655.36 1.0
|118>     S 1
|119>      1  327.68 1.0
|120>     S 1
|121>      1  163.84 1.0
|122>     S 1
|123>      1   81.82 1.0
|124>     S 1
|125>      1   40.96 1.0
|126>     S 1
|127>      1   20.48 1.0
|128>     S 1
|129>      1   10.24 1.0
|130>     S 1
|131>      1    5.12 1.0
|132>     S 1
|133>      1    2.56 1.0
|134>     S 1
|135>      1    1.28 1.0
|136>     S 1
|137>      1    0.64 1.0
|138>     S 1
|139>      1    0.32 1.0
|140>     S 1
|141>      1    0.16 1.0
|142>     S 1
|143>      1    0.08 1.0
|144>     S 1
|145>      1    0.04 1.0
|146>     S 1
|147>      1    0.02 1.0
|148>     S 1
|149>      1    0.01 1.0
|150>   end
|151> end
|152>
|153> * xyz 0 4
|154> 67  0.0 0.0 0.0
|155> *
|156>
|157>
|158>                          ****END OF INPUT****

CARTESIAN COORDINATES (ANGSTROEM)
---------------------------------
  Ho     0.000000    0.000000    0.000000

 Total Charge           Charge          ....    0
 Multiplicity           Mult            ....    4
 Number of Electrons    NEL             ....   39
 Basis Dimension        Dim             ....   84

ORBITAL ENERGIES
----------------

  NO   OCC          E(Eh)            E(eV)
   0   2.0000     -16.793074      -456.9628
   1   2.0000     -11.578147      -315.0574
   2   2.0000     -11.557515      -314.4960
   3   2.0000     -11.546342      -314.1919
   4   2.0000      -5.936635      -161.5441
   5   2.0000      -5.934883      -161.4964
   6   2.0000      -5.933645      -161.4627
   7   2.0000      -5.928904      -161.3337
   8   2.0000      -5.928225      -161.3152
   9   2.0000      -2.012359       -54.7591
  10   2.0000      -0.981927       -26.7196
  11   2.0000      -0.979390       -26.6506
  12   2.0000      -0.966344       -26.2956
  13   2.0000      -0.226147        -6.1538
  14   1.5714      -0.249423        -6.7871
  15   1.5714      -0.249258        -6.7826
  16   1.5714      -0.241266        -6.5652
  17   1.5714      -0.235086        -6.3970
  18   1.5714      -0.234005        -6.3676
  19   1.5714      -0.210869        -5.7380
  20   1.5714      -0.024057        -0.6546
  21   0.0000      -0.011872        -0.3231
  22   0.0000       0.044515         1.2113
  23   0.0000       0.051861         1.4112
  24   0.0000       0.052738         1.4351
  25   0.0000       0.134088         3.6487

FINAL SINGLE POINT ENERGY      -944.979623297874

DIPOLE MOMENT
-------------
                                X             Y             Z
Electronic contribution:      0.00000       0.00000      -0.00000
Nuclear contribution   :      0.00000       0.00000       0.00000
                        -----------------------------------------
Total Dipole Moment    :      0.00000       0.00000      -0.00000
                        -----------------------------------------
Magnitude (a.u.)       :      0.00000
Magnitude (Debye)      :      0.00000

Rotational constants in cm-1:     0.000000     0.000000     0.000000
Rotational constants in MHz :     0.000000     0.000000     0.000000

                             ****ORCA TERMINATED NORMALLY****
TOTAL RUN TIME: 0 days 0 hours 0 minutes 3 seconds 72 msec
