                         Program Version 5.0.4 -  RELEASE  -
|  1> ! def2-tzvp HF
|  2> %output Print [ P_Overlap ] 1 end
|  3> * xyz 0 1
|  4> F 0.0 0.0 0.0
|  5> F 0.5 0.0 0.0
|  6> *
|  7>
|  8>                          ****END OF INPUT****

CARTESIAN COORDINATES (ANGSTROEM)
---------------------------------
  F      0.000000    0.000000    0.000000
  F      0.500000    0.000000    0.000000

 Total Charge           Charge          ....    0
 Multiplicity           Mult            ....    1
 Number of Electrons    NEL             ....   18
 Basis Dimension        Dim             ....   62

ORBITAL ENERGIES
----------------

  NO   OCC          E(Eh)            E(eV)
   0   2.0000     -27.153545      -738.8855
   1   2.0000     -26.888872      -731.6834
   2   2.0000      -3.387154       -92.1691
   3   2.0000      -2.143091       -58.3165
   4   2.0000      -2.143091       -58.3165
   5   2.0000      -1.484630       -40.3988
   6   2.0000      -1.297618       -35.3100
   7   2.0000      -0.076922        -2.0932
   8   2.0000      -0.076922        -2.0932
   9   0.0000       0.409583        11.1453
  10   0.0000       0.425321        11.5736
  11   0.0000       0.425321        11.5736
  12   0.0000       0.517872        14.0920
  13   0.0000       0.646563        17.5939

MULLIKEN ATOMIC CHARGES
-----------------------
   0 F :   -0.000000
   1 F :    0.000000
Sum of atomic charges:   -0.0000000

LOEWDIN ATOMIC CHARGES
----------------------
   0 F :   -0.000000
   1 F :    0.000000

  Mayer bond orders larger than 0.100000
B(  0-F ,  1-F ) :   0.3636

FINAL SINGLE POINT ENERGY      -190.772223937679

DIPOLE MOMENT
-------------
                                X             Y             Z
Electronic contribution:      0.00000      -0.00000      -0.00000
Nuclear contribution   :      0.00000       0.00000       0.00000
                        -----------------------------------------
Total Dipole Moment    :      0.00000      -0.00000      -0.00000
                        -----------------------------------------
Magnitude (a.u.)       :      0.00000
Magnitude (Debye)      :      0.00000

Rotational constants in cm-1:     0.000000     7.098703     7.098703
Rotational constants in MHz :     0.000000 212813.761317 212813.761317

                             ****ORCA TERMINATED NORMALLY****
TOTAL RUN TIME: 0 days 0 hours 0 minutes 2 seconds 182 msec
