                         Program Version 5.0.4 -  RELEASE  -
|  1> ! sto-3g HF
|  2> %output
|  3> Print [ P_Overlap ] 1
|  4> Print [ P_MOs ] 1
|  5> end
|  6> * xyz 0 1
|  7> F 0.0 0.0 0.0
|  8> F 0.2 0.3 0.4
|  9> *
| 10>
| 11>                          ****END OF INPUT****

CARTESIAN COORDINATES (ANGSTROEM)
---------------------------------
  F      0.000000    0.000000    0.000000
  F      0.200000    0.300000    0.400000

 Total Charge           Charge          ....    0
 Multiplicity           Mult            ....    1
 Number of Electrons    NEL             ....   18
 Basis Dimension        Dim             ....   10

ORBITAL ENERGIES
----------------

  NO   OCC          E(Eh)            E(eV)
   0   2.0000     -27.045374      -735.9420
   1   2.0000     -26.895961      -731.8763
   2   2.0000      -3.065218       -83.4088
   3   2.0000      -1.652308       -44.9616
   4   2.0000      -1.652308       -44.9616
   5   2.0000      -1.108088       -30.1526
   6   2.0000      -1.012045       -27.5391
   7   2.0000       0.016277         0.4429
   8   2.0000       0.016277         0.4429
   9   0.0000       4.532372       123.3321
------------------
MOLECULAR ORBITALS
------------------
                      0         1         2         3         4         5
                 -27.04537 -26.89596  -3.06522  -1.65231  -1.65231  -1.10809
                   2.00000   2.00000   2.00000   2.00000   2.00000   2.00000
                  --------  --------  --------  --------  --------  --------
  0F   1s        -0.698392 -0.707009 -0.248612 -0.000000 -0.000000  0.162308
  0F   2s        -0.011228 -0.051726  0.375158 -0.000000 -0.000000 -0.698783
  0F   1pz       -0.010230 -0.014193  0.292437 -0.379447 -0.004128  0.268143
  0F   1px       -0.005115 -0.007097  0.146219  0.238636 -0.469010  0.134071
  0F   1py       -0.007672 -0.010645  0.219328  0.346839  0.318178  0.201107
  1F   1s        -0.698392  0.707009 -0.248612  0.000000  0.000000 -0.162308
  1F   2s        -0.011228  0.051726  0.375158  0.000000  0.000000  0.698783
  1F   1pz        0.010230 -0.014193 -0.292437 -0.379447 -0.004128  0.268143
  1F   1px        0.005115 -0.007097 -0.146219  0.238636 -0.469010  0.134071
  1F   1py        0.007672 -0.010645 -0.219328  0.346839  0.318178  0.201107
                      6         7         8         9
                  -1.01205   0.01628   0.01628   4.53237
                   2.00000   2.00000   2.00000   0.00000
                  --------  --------  --------  --------
  0F   1s         0.028649 -0.000000 -0.000000 -0.076403
  0F   2s        -0.468011 -0.000000 -0.000000 -4.702903
  0F   1pz        0.482374 -0.331095 -0.629134 -1.921143
  0F   1px        0.241187  0.985595 -0.024302 -0.960571
  0F   1py        0.361781 -0.215604  0.855047 -1.440857
  1F   1s         0.028649 -0.000000 -0.000000  0.076403
  1F   2s        -0.468011 -0.000000 -0.000000  4.702903
  1F   1pz       -0.482374  0.331095  0.629134 -1.921143
  1F   1px       -0.241187 -0.985595  0.024302 -0.960571
  1F   1py       -0.361781  0.215604 -0.855047 -1.440857

MULLIKEN ATOMIC CHARGES
-----------------------
   0 F :    0.000000
   1 F :   -0.000000
Sum of atomic charges:    0.0000000

LOEWDIN ATOMIC CHARGES
----------------------
   0 F :   -0.000000
   1 F :   -0.000000

  Mayer bond orders larger than 0.100000
B(  0-F ,  1-F ) :   1.0000

FINAL SINGLE POINT ENERGY      -187.513945973982

DIPOLE MOMENT
-------------
                                X             Y             Z
Electronic contribution:      0.00000      -0.00000       0.00000
Nuclear contribution   :      0.00000       0.00000       0.00000
                        -----------------------------------------
Total Dipole Moment    :      0.00000      -0.00000       0.00000
                        -----------------------------------------
Magnitude (a.u.)       :      0.00000
Magnitude (Debye)      :      0.00000

Rotational constants in cm-1:     0.000000     6.119572     6.119572
Rotational constants in MHz :     0.000000 183460.139067 183460.139067

                             ****ORCA TERMINATED NORMALLY****
TOTAL RUN TIME: 0 days 0 hours 0 minutes 0 seconds 622 msec
