                         Program Version 5.0.4 -  RELEASE  -
|  1> ! def2-tzvp HF
|  2> %output Print [ P_Overlap ] 1 end
|  3> * xyz 0 1
|  4> H 0.0 0.0 0.0
|  5> H 0.2 0.3 0.4
|  6> *
|  7>
|  8>                          ****END OF INPUT****

CARTESIAN COORDINATES (ANGSTROEM)
---------------------------------
  H      0.000000    0.000000    0.000000
  H      0.200000    0.300000    0.400000

 Total Charge           Charge          ....    0
 Multiplicity           Mult            ....    1
 Number of Electrons    NEL             ....    2
 Basis Dimension        Dim             ....   12

ORBITAL ENERGIES
----------------

  NO   OCC          E(Eh)            E(eV)
   0   2.0000      -0.665518       -18.1097
   1   0.0000       0.190745         5.1904
   2   0.0000       0.291896         7.9429
   3   0.0000       0.717324        19.5194
   4   0.0000       1.455872        39.6163
   5   0.0000       1.455872        39.6163

MULLIKEN ATOMIC CHARGES
-----------------------
   0 H :   -0.000000
   1 H :    0.000000
Sum of atomic charges:    0.0000000

LOEWDIN ATOMIC CHARGES
----------------------
   0 H :   -0.000000
   1 H :    0.000000

  Mayer bond orders larger than 0.100000
B(  0-H ,  1-H ) :   1.0000

FINAL SINGLE POINT ENERGY        -1.088344074065

DIPOLE MOMENT
-------------
                                X             Y             Z
Electronic contribution:      0.00000       0.00000       0.00000
Nuclear contribution   :      0.00000       0.00000       0.00000
                        -----------------------------------------
Total Dipole Moment    :      0.00000       0.00000       0.00000
                        -----------------------------------------
Magnitude (a.u.)       :      0.00000
Magnitude (Debye)      :      0.00000

Rotational constants in cm-1:     0.000000   115.336925   115.336925
Rotational constants in MHz :     0.000000 3457714.009911 3457714.009911

                             ****ORCA TERMINATED NORMALLY****
TOTAL RUN TIME: 0 days 0 hours 0 minutes 0 seconds 171 msec
